_chemical_name_mineral 'Ice Ih deuterated'
loop_
_publ_author_name
'Peterson S'
'Levy H'
_journal_name_full 'Acta Crystallographica'
_journal_volume 10 
_journal_year 1957
_journal_page_first 70
_journal_page_last 76
_publ_section_title
;
 A Single-Crystal Neutron Diffraction Study of Heavy Ice
 _cod_database_code 1008749
;
_database_code_amcsd 0016628
_chemical_formula_sum 'O D2'
_cell_length_a 4.489
_cell_length_b 4.489
_cell_length_c 7.327
_cell_angle_alpha 90
_cell_angle_beta 90
_cell_angle_gamma 120
_cell_volume 127.866
_exptl_crystal_density_diffrn      1.040
_symmetry_space_group_name_H-M 'P 63/m m c'
loop_
_space_group_symop_operation_xyz
  'x,y,z'
  '-x,-x+y,1/2+z'
  'x,x-y,1/2-z'
  '-x+y,-x,1/2-z'
  'x-y,x,1/2+z'
  '-y,-x,z'
  'y,x,-z'
  'y,-x+y,-z'
  '-y,x-y,z'
  'x-y,-y,1/2+z'
  '-x+y,y,1/2-z'
  'x,y,1/2-z'
  '-x,-y,1/2+z'
  'x,x-y,z'
  '-x,-x+y,-z'
  'x-y,x,-z'
  '-x+y,-x,z'
  'y,x,1/2+z'
  '-y,-x,1/2-z'
  '-y,x-y,1/2-z'
  'y,-x+y,1/2+z'
  '-x+y,y,z'
  'x-y,-y,-z'
  '-x,-y,-z'
loop_
_atom_site_label
_atom_site_fract_x
_atom_site_fract_y
_atom_site_fract_z
_atom_site_occupancy
O1   0.33333   0.66667   0.06200   1.00000
D1   0.33333   0.66667   0.19800   0.50000
D2   0.45450   0.90900   0.01720   0.50000
loop_
_atom_site_aniso_label
_atom_site_aniso_U_11
_atom_site_aniso_U_22
_atom_site_aniso_U_33
_atom_site_aniso_U_12
_atom_site_aniso_U_13
_atom_site_aniso_U_23
O1 1.17145 1.17145 4.02517 0.58189 0.00000 0.00000
D1 1.84522 1.84522 4.92268 0.91878 0.00000 0.00000
D2 1.75334 1.41645 6.60890 0.70440 0.34633 0.69266

